 Gaussian 03, Revision E.01,
 Gaussian 03:  EM64L-G03RevE.01 11-Sep-2007

 -------------------------------------------
 # opt freq hf/6-311g(d,p) geom=connectivity
 -------------------------------------------

 -------------------
 Title Card Required
 -------------------
 Symbolic Z-matrix:
 Charge =  1 Multiplicity = 1

 SCF Done:  E(RHF) =  -1323.61969194     A.U. after   16 cycles
 SCF Done:  E(RHF) =  -1323.64477959     A.U. after   14 cycles
 SCF Done:  E(RHF) =  -1323.64678056     A.U. after   13 cycles
 SCF Done:  E(RHF) =  -1323.64040741     A.U. after   14 cycles
 SCF Done:  E(RHF) =  -1323.64771855     A.U. after   15 cycles
 SCF Done:  E(RHF) =  -1323.64819552     A.U. after   13 cycles
 SCF Done:  E(RHF) =  -1323.64649698     A.U. after   14 cycles
 SCF Done:  E(RHF) =  -1323.64852699     A.U. after   13 cycles
 SCF Done:  E(RHF) =  -1323.64856184     A.U. after   12 cycles
 SCF Done:  E(RHF) =  -1323.64858380     A.U. after   12 cycles
 SCF Done:  E(RHF) =  -1323.64859284     A.U. after   12 cycles
 SCF Done:  E(RHF) =  -1323.64859660     A.U. after   11 cycles
 SCF Done:  E(RHF) =  -1323.64859872     A.U. after   11 cycles
 SCF Done:  E(RHF) =  -1323.64860000     A.U. after   11 cycles
 SCF Done:  E(RHF) =  -1323.64860063     A.U. after   10 cycles
 SCF Done:  E(RHF) =  -1323.64860085     A.U. after    9 cycles
 SCF Done:  E(RHF) =  -1323.64860089     A.U. after    7 cycles
 SCF Done:  E(RHF) =  -1323.64860090     A.U. after    6 cycles
 Optimization completed.
    -- Stationary point found.
 Normal termination of Gaussian 03 at Thu May 13 02:04:33 2010.

 ------------------------------------------------------------------
 #N Geom=AllCheck Guess=Read SCRF=Check GenChk RHF/6-311G(d,p) Freq
 ------------------------------------------------------------------

 Title Card Required
 -------------------
 Redundant internal coordinates taken from checkpoint file:
 axial1.chk
 Charge =  1 Multiplicity = 1

                         Standard orientation:
 ---------------------------------------------------------------------
 Center     Atomic     Atomic              Coordinates (Angstroms)
 Number     Number      Type              X           Y           Z
 ---------------------------------------------------------------------
    1          6             0       -5.138087    1.304739   -0.063816
    2          6             0       -5.306855   -0.048540   -0.227867
    3          6             0       -4.222705   -0.887128   -0.054523
    4          6             0       -2.955960   -0.381953    0.280493
    5          6             0       -2.827855    0.995994    0.426238
    6          6             0       -3.908579    1.837148    0.261960
    7          1             0       -6.264109   -0.453630   -0.484187
    8          1             0       -1.873379    1.425805    0.655428
    9          1             0       -3.800106    2.897216    0.378125
   10          7             0       -4.477503   -2.318928   -0.224214
   11          8             0       -3.623053   -3.080524    0.130970
   12          8             0       -5.505411   -2.640063   -0.689265
   13          7             0       -6.286004    2.194487   -0.239260
   14          8             0       -6.089423    3.352826   -0.091173
   15          8             0       -7.319441    1.691075   -0.514615
   16          7             0       -1.836595   -1.211907    0.400533
   17          1             0       -2.046305   -2.172679    0.576886
   18          7             0       -0.783762   -0.744151    1.156456
   19          6             0        0.428462   -0.678679    0.728505
   20          6             0        0.816576   -1.039077   -0.666452
   21          1             0        1.329530   -1.994607   -0.576713
   22          1             0       -0.054951   -1.178632   -1.286068
   23          6             0        1.500855   -0.258072    1.681443
   24          1             0        1.075938    0.105411    2.610362
   25          1             0        2.072068   -1.157326    1.897593
   26          6             0        2.441937    0.774664    1.035575
   27          1             0        3.269151    0.951893    1.709490
   28          1             0        1.923677    1.719248    0.894706
   29          6             0        1.797754   -0.006235   -1.255756
   30          1             0        1.276314    0.922150   -1.472338
   31          1             0        2.156850   -0.393701   -2.200940
   32          6             0        2.963604    0.263395   -0.303349
   33          1             0        3.616315    1.014807   -0.732233
   34          8             0        3.663481   -0.923849   -0.058109
   35          6             0        4.822216   -1.160507   -0.838580
   36          1             0        5.081709   -2.192272   -0.644675
   37          1             0        4.586488   -1.072467   -1.895539
   38          6             0        5.971884   -0.245917   -0.482891
   39          6             0        6.577699    0.544487   -1.445628
   40          6             0        6.452570   -0.206149    0.823190
   41          6             0        7.647948    1.365239   -1.115639
   42          1             0        6.224799    0.519305   -2.462492
   43          6             0        7.513686    0.612872    1.155234
   44          1             0        5.999061   -0.826375    1.576737
   45          6             0        8.114682    1.402219    0.183683
   46          1             0        8.111853    1.969708   -1.873820
   47          1             0        7.881980    0.630984    2.165173
   48          1             0        8.944214    2.035175    0.441633
   49          1             0       -0.972268   -0.513242    2.114882
 ---------------------------------------------------------------------

 SCF Done:  E(RHF) =  -1323.64860090     A.U. after    1 cycles

 The electronic state is 1-A.
 Alpha  occ. eigenvalues --  -20.72502 -20.71378 -20.69179 -20.69051 -20.67430
 Alpha  occ. eigenvalues --  -15.98175 -15.95333 -15.86183 -15.79051 -11.53425
 Alpha  occ. eigenvalues --  -11.48030 -11.44535 -11.42572 -11.41434 -11.41373
 Alpha  occ. eigenvalues --  -11.41230 -11.41115 -11.40410 -11.39855 -11.38664
 Alpha  occ. eigenvalues --  -11.37559 -11.37518 -11.32681 -11.31907 -11.31771
 Alpha  occ. eigenvalues --  -11.31511 -11.31421 -11.31244  -1.77655  -1.74857
 Alpha  occ. eigenvalues --   -1.57702  -1.55675  -1.53184  -1.51054  -1.39644
 Alpha  occ. eigenvalues --   -1.33695  -1.27394  -1.24761  -1.24354  -1.21203
 Alpha  occ. eigenvalues --   -1.19543  -1.15989  -1.12615  -1.10431  -1.10180
 Alpha  occ. eigenvalues --   -1.08599  -1.04897  -1.03038  -1.01827  -0.99201
 Alpha  occ. eigenvalues --   -0.96455  -0.94112  -0.93186  -0.91726  -0.91307
 Alpha  occ. eigenvalues --   -0.89573  -0.89028  -0.87382  -0.86985  -0.86755
 Alpha  occ. eigenvalues --   -0.86577  -0.84559  -0.83561  -0.81812  -0.80186
 Alpha  occ. eigenvalues --   -0.79691  -0.79324  -0.78176  -0.77357  -0.76422
 Alpha  occ. eigenvalues --   -0.75077  -0.74090  -0.72954  -0.71834  -0.71605
 Alpha  occ. eigenvalues --   -0.70685  -0.70180  -0.69501  -0.69260  -0.68205
 Alpha  occ. eigenvalues --   -0.67424  -0.66102  -0.65665  -0.63853  -0.62985
 Alpha  occ. eigenvalues --   -0.62338  -0.62308  -0.61803  -0.60124  -0.59400
 Alpha  occ. eigenvalues --   -0.59335  -0.58844  -0.58262  -0.58225  -0.57101
 Alpha  occ. eigenvalues --   -0.55281  -0.53828  -0.51722  -0.48961  -0.42380
 Alpha  occ. eigenvalues --   -0.42056
 Alpha virt. eigenvalues --   -0.08200  -0.06672  -0.05197  -0.01368   0.01328
 Alpha virt. eigenvalues --    0.02057   0.03166   0.03962   0.04496   0.05130
 Alpha virt. eigenvalues --    0.05462   0.06743   0.07140   0.07564   0.08489

 Mulliken atomic charges:
              1
     1  C    0.049472
     2  C    0.073257
     3  C    0.074526
     4  C    0.289427
     5  C   -0.095677
     6  C    0.038100
     7  H    0.215513
     8  H    0.123477
     9  H    0.179301
    10  N    0.382448
    11  O   -0.440208
    12  O   -0.310551
    13  N    0.386314
    14  O   -0.364248
    15  O   -0.355934
    16  N   -0.388049
    17  H    0.313693
    18  N   -0.337287
    19  C    0.343718
    20  C   -0.187470
    21  H    0.188583
    22  H    0.180713
    23  C   -0.202608
    24  H    0.144210
    25  H    0.197287
    26  C   -0.160050
    27  H    0.159084
    28  H    0.122931
    29  C   -0.150353
    30  H    0.126224
    31  H    0.145133
    32  C    0.020219
    33  H    0.158599
    34  O   -0.521866
    35  C    0.170086
    36  H    0.127172
    37  H    0.092611
    38  C   -0.188046
    39  C   -0.093551
    40  C   -0.085659
    41  C   -0.073116
    42  H    0.095947
    43  C   -0.074671
    44  H    0.094300
    45  C   -0.094700
    46  H    0.115064
    47  H    0.113315
    48  H    0.117102
    49  H    0.286217
 Sum of Mulliken charges=   1.00000

 Dipole moment (field-independent basis, Debye):
    X=     6.2101    Y=    -0.1114    Z=     3.5608  Tot=     7.1594
 Quadrupole moment (field-independent basis, Debye-Ang):
   XX=  -142.7424   YY=  -169.0797   ZZ=  -143.1898
   XY=    10.5655   XZ=    -8.8564   YZ=    -1.7086

  Exact polarizability: 310.285  16.676 212.581  19.898   1.435 172.349
 Approx polarizability: 239.612  17.211 219.153  19.861  -0.271 184.892

                     1                      2                      3
                     A                      A                      A
 Frequencies --    10.5429                12.3718                23.3035
 Red. masses --     6.5756                 6.0317                 4.6948
 Frc consts  --     0.0004                 0.0005                 0.0015
 IR Inten    --     3.0439                 1.1123                 1.3974
 Raman Activ --     1.4078                 1.2396                 4.5786

                     4                      5                      6
                     A                      A                      A
 Frequencies --    28.3985                37.3410                46.6248
 Red. masses --     6.1785                 4.0142                14.9768
 Frc consts  --     0.0029                 0.0033                 0.0192
 IR Inten    --     1.1240                 0.2731                 0.1066
 Raman Activ --     4.4604                 4.6713                 1.3117

                     7                      8                      9
                     A                      A                      A
 Frequencies --    54.3404                59.8121                66.5052
 Red. masses --    10.5216                 4.2929                 5.6070
 Frc consts  --     0.0183                 0.0090                 0.0146
 IR Inten    --     2.5520                 0.9021                 0.9861
 Raman Activ --     0.6686                 1.0345                 1.1655

                    10                     11                     12
                     A                      A                      A
 Frequencies --    91.2024               136.5317               151.9377
 Red. masses --     5.3978                 5.1612                 4.0382
 Frc consts  --     0.0265                 0.0567                 0.0549
 IR Inten    --     0.4934                 1.1288                 4.9306
 Raman Activ --     0.4411                 0.5201                 1.4606

                    13                     14                     15
                     A                      A                      A
 Frequencies --   172.8967               183.1171               203.2587
 Red. masses --     5.6967                 9.9746                 3.8745
 Frc consts  --     0.1003                 0.1971                 0.0943
 IR Inten    --     4.8808                 6.7566                 6.6652
 Raman Activ --     1.8880                 2.1642                 2.5938

                    16                     17                     18
                     A                      A                      A
 Frequencies --   218.9487               249.8943               299.1225
 Red. masses --     3.2321                 4.8961                 4.5446
 Frc consts  --     0.0913                 0.1801                 0.2396
 IR Inten    --     4.4235                21.7844                 1.2218
 Raman Activ --     0.9070                 2.5451                 0.9198

                    19                     20                     21
                     A                      A                      A
 Frequencies --   302.3265               351.5580               357.8348
 Red. masses --     4.2362                 2.6525                 4.3497
 Frc consts  --     0.2281                 0.1932                 0.3282
 IR Inten    --     2.6617                 0.8848                 0.9325
 Raman Activ --     1.0194                 0.9799                 1.1153

                    22                     23                     24
                     A                      A                      A
 Frequencies --   373.2899               395.5287               404.6549
 Red. masses --     6.1770                 2.3103                 5.5975
 Frc consts  --     0.5071                 0.2129                 0.5400
 IR Inten    --     1.0902                 7.0312                 1.0913
 Raman Activ --     1.6367                 0.8050                 2.5286

                    25                     26                     27
                     A                      A                      A
 Frequencies --   417.4852               430.2148               452.1375
 Red. masses --     4.2480                 3.5401                 3.1805
 Frc consts  --     0.4362                 0.3860                 0.3831
 IR Inten    --     7.2199                11.8800                 1.7412
 Raman Activ --     2.4758                 0.3748                 0.3868

                    28                     29                     30
                     A                      A                      A
 Frequencies --   454.2044               471.1094               476.3251
 Red. masses --     4.6189                 3.2429                 2.5334
 Frc consts  --     0.5614                 0.4241                 0.3387
 IR Inten    --     2.7072                 1.0705                 1.7698
 Raman Activ --     1.8039                 0.9881                 0.7038

                    31                     32                     33
                     A                      A                      A
 Frequencies --   525.4826               539.0549               565.3443
 Red. masses --     3.6055                 3.0814                 3.4601
 Frc consts  --     0.5866                 0.5276                 0.6516
 IR Inten    --     3.9707                 3.4756                15.8711
 Raman Activ --     2.9455                 1.0529                 0.4410

                    34                     35                     36
                     A                      A                      A
 Frequencies --   575.7739               605.9777               643.9443
 Red. masses --     8.1998                 3.8385                 3.9156
 Frc consts  --     1.6016                 0.8305                 0.9566
 IR Inten    --     7.1306                11.2056                21.8824
 Raman Activ --     1.9556                 3.4733                 2.3750

                    37                     38                     39
                     A                      A                      A
 Frequencies --   667.0647               676.8973               687.8970
 Red. masses --     2.9061                 6.2757                 4.4496
 Frc consts  --     0.7619                 1.6942                 1.2406
 IR Inten    --    46.2220                 0.6228                 4.0754
 Raman Activ --     4.8234                 5.3838                 2.1828

                    40                     41                     42
                     A                      A                      A
 Frequencies --   707.8978               750.2698               760.1959
 Red. masses --     6.0959                 4.5178                 2.9526
 Frc consts  --     1.7998                 1.4983                 1.0053
 IR Inten    --    40.4335                 8.0708                 5.4646
 Raman Activ --    12.0658                 1.5908                16.4720

                    43                     44                     45
                     A                      A                      A
 Frequencies --   775.8538               791.8700               808.8199
 Red. masses --     2.0292                 3.7746                 1.6187
 Frc consts  --     0.7197                 1.3945                 0.6239
 IR Inten    --    46.0964                90.9529                10.9670
 Raman Activ --     2.2150                 0.9908                 2.6966

                    46                     47                     48
                     A                      A                      A
 Frequencies --   823.1895               827.7343               830.4391
 Red. masses --     2.3040                 5.0647                 2.3486
 Frc consts  --     0.9199                 2.0445                 0.9543
 IR Inten    --    45.4579                97.2670                51.7440
 Raman Activ --     5.2786                 5.8134                 1.9035

                    49                     50                     51
                     A                      A                      A
 Frequencies --   836.0628               852.8342               871.6014
 Red. masses --     2.4727                 8.3981                 1.6532
 Frc consts  --     1.0183                 3.5988                 0.7400
 IR Inten    --     4.3856                 6.8974                47.3537
 Raman Activ --     6.6654                 3.0131                 2.9872

                    52                     53                     54
                     A                      A                      A
 Frequencies --   885.2603               907.8549               930.9092
 Red. masses --     3.1448                 2.6183                 2.0543
 Frc consts  --     1.4521                 1.2715                 1.0489
 IR Inten    --     9.8671                 2.2425                22.8370
 Raman Activ --    17.9249                 7.2272                 5.1612

                    55                     56                     57
                     A                      A                      A
 Frequencies --   938.2659               953.8001               962.2560
 Red. masses --     2.0048                 1.2487                 9.7696
 Frc consts  --     1.0399                 0.6693                 5.3298
 IR Inten    --    74.7736                 0.1492                51.7087
 Raman Activ --     3.4768                 0.0910                17.2389

                    58                     59                     60
                     A                      A                      A
 Frequencies --   972.4601               994.6134              1027.4021
 Red. masses --     2.3690                 2.1261                 1.6100
 Frc consts  --     1.3199                 1.2392                 1.0013
 IR Inten    --     2.9319                14.0573                 2.7861
 Raman Activ --     1.4051                 5.1587                 1.8981

                    61                     62                     63
                     A                      A                      A
 Frequencies --  1033.4148              1039.7221              1067.6737
 Red. masses --     1.4649                 6.1861                 2.5509
 Frc consts  --     0.9217                 3.9400                 1.7132
 IR Inten    --    16.5215                21.6371                 5.3453
 Raman Activ --     0.4681                 6.3049                 2.5648

                    64                     65                     66
                     A                      A                      A
 Frequencies --  1081.0493              1083.4674              1091.1492
 Red. masses --     5.2537                 1.4018                 2.3696
 Frc consts  --     3.6175                 0.9696                 1.6623
 IR Inten    --     8.7433                13.2392                15.9499
 Raman Activ --    37.2187                 1.4832                 8.4965

                    67                     68                     69
                     A                      A                      A
 Frequencies --  1103.7533              1111.1355              1118.4212
 Red. masses --     1.3762                 2.0725                 2.1994
 Frc consts  --     0.9878                 1.5076                 1.6209
 IR Inten    --     0.0810                 0.6362                 2.3455
 Raman Activ --     0.1287                 4.7102                 6.3243

                    70                     71                     72
                     A                      A                      A
 Frequencies --  1121.1060              1126.5219              1152.8676
 Red. masses --     1.3397                 1.3516                 1.5347
 Frc consts  --     0.9921                 1.0106                 1.2018
 IR Inten    --     0.7648                 0.0258                 3.0427
 Raman Activ --     0.1661                 0.2244                 2.3289

                    73                     74                     75
                     A                      A                      A
 Frequencies --  1167.5634              1176.4891              1193.8041
 Red. masses --     1.8849                 2.7344                 3.3490
 Frc consts  --     1.5139                 2.2299                 2.8121
 IR Inten    --     6.2915                19.9495               152.8483
 Raman Activ --     0.3847                 2.9586                 1.5854

                    76                     77                     78
                     A                      A                      A
 Frequencies --  1218.0825              1227.1421              1235.1010
 Red. masses --     2.1419                 2.2135                 2.0589
 Frc consts  --     1.8724                 1.9639                 1.8505
 IR Inten    --    91.7290                61.4046               111.0820
 Raman Activ --     4.1580                 4.6817                16.7679

                    79                     80                     81
                     A                      A                      A
 Frequencies --  1243.7798              1253.3947              1267.0519
 Red. masses --     2.3427                 1.1633                 2.4106
 Frc consts  --     2.1353                 1.0768                 2.2802
 IR Inten    --    26.3381                11.1469                13.5354
 Raman Activ --    12.0703                 3.5000                 6.6131

                    82                     83                     84
                     A                      A                      A
 Frequencies --  1279.5507              1287.8253              1316.0966
 Red. masses --     3.0582                 1.1438                 2.3737
 Frc consts  --     2.9500                 1.1176                 2.4224
 IR Inten    --    20.9452                 0.0200                 6.5796
 Raman Activ --    14.0180                 3.3393                 7.0713

                    85                     86                     87
                     A                      A                      A
 Frequencies --  1318.0953              1328.0002              1337.4174
 Red. masses --     2.6567                 1.5561                 1.4901
 Frc consts  --     2.7194                 1.6169                 1.5704
 IR Inten    --    37.1536                 0.8933                 4.3794
 Raman Activ --    14.2094                 0.6847                 9.6977

                    88                     89                     90
                     A                      A                      A
 Frequencies --  1354.4405              1393.0253              1402.8284
 Red. masses --     2.0387                 1.4288                 1.4829
 Frc consts  --     2.2036                 1.6335                 1.7194
 IR Inten    --    76.1850                11.0585                 1.4896
 Raman Activ --    42.8967                16.5625                14.7118

                    91                     92                     93
                     A                      A                      A
 Frequencies --  1416.2624              1419.6705              1445.6610
 Red. masses --     1.5063                 1.4394                 1.3994
 Frc consts  --     1.7801                 1.7092                 1.7231
 IR Inten    --    69.5080                 4.7595                 1.2900
 Raman Activ --    11.0622                 6.8977                 5.0493

                    94                     95                     96
                     A                      A                      A
 Frequencies --  1461.2913              1470.6610              1491.5265
 Red. masses --     1.4647                 1.2916                 1.3582
 Frc consts  --     1.8428                 1.6459                 1.7802
 IR Inten    --    11.1499                 1.5672                17.6863
 Raman Activ --    23.0077                 4.0705                 2.2107

                    97                     98                     99
                     A                      A                      A
 Frequencies --  1500.9313              1508.2312              1528.3915
 Red. masses --     1.6996                 1.3734                 1.4398
 Frc consts  --     2.2559                 1.8407                 1.9817
 IR Inten    --    11.7498                50.1013                36.9672
 Raman Activ --     3.3444                 1.5121                 2.2209

                   100                    101                    102
                     A                      A                      A
 Frequencies --  1547.5410              1549.6784              1575.4550
 Red. masses --     1.3818                 3.8242                 2.3841
 Frc consts  --     1.9497                 5.4110                 3.4865
 IR Inten    --     6.0740                 9.7321                59.9607
 Raman Activ --     5.5288                 5.9580                67.0558

                   103                    104                    105
                     A                      A                      A
 Frequencies --  1579.4559              1591.9617              1604.2671
 Red. masses --     1.1911                 1.1670                 1.9351
 Frc consts  --     1.7507                 1.7425                 2.9344
 IR Inten    --    14.5770                42.5231                17.1958
 Raman Activ --     9.3092                 6.1420                 0.9786

                   106                    107                    108
                     A                      A                      A
 Frequencies --  1607.7876              1621.0422              1623.7528
 Red. masses --     1.1356                 1.1607                 5.0316
 Frc consts  --     1.7296                 1.7970                 7.8162
 IR Inten    --     6.6785                90.5762               530.1096
 Raman Activ --     4.9427                16.3631                33.2676

                   109                    110                    111
                     A                      A                      A
 Frequencies --  1631.1334              1648.9207              1653.0494
 Red. masses --     1.0971                 4.5422                 2.1991
 Frc consts  --     1.7197                 7.2763                 3.5405
 IR Inten    --     3.7110               102.8425                 6.7174
 Raman Activ --    10.9256                72.2398                 1.0634

                   112                    113                    114
                     A                      A                      A
 Frequencies --  1660.3518              1680.0406              1766.8699
 Red. masses --     1.4897                 2.3465                 5.6451
 Frc consts  --     2.4197                 3.9021                10.3832
 IR Inten    --    54.6708                83.2317                 7.1447
 Raman Activ --    11.9163                 2.4815                19.3513

                   115                    116                    117
                     A                      A                      A
 Frequencies --  1770.3655              1788.7361              1794.7256
 Red. masses --     5.2755                 5.5927                 5.3173
 Frc consts  --     9.7419                10.5431                10.0910
 IR Inten    --     2.0715                26.7694                 0.0434
 Raman Activ --     8.1949               122.1368                28.9487

                   118                    119                    120
                     A                      A                      A
 Frequencies --  1827.4180              1868.5021              1877.7093
 Red. masses --     3.9902                 9.8103                11.3709
 Frc consts  --     7.8509                20.1800                23.6211
 IR Inten    --   376.8312               274.8666               877.4036
 Raman Activ --    20.3436                 4.4951                18.2908

                   121                    122                    123
                     A                      A                      A
 Frequencies --  3183.2972              3184.7878              3187.4935
 Red. masses --     1.0707                 1.0684                 1.0657
 Frc consts  --     6.3927                 6.3847                 6.3795
 IR Inten    --     0.4586                28.8557                12.6559
 Raman Activ --    10.0651                52.3885                19.6794

                   124                    125                    126
                     A                      A                      A
 Frequencies --  3190.7190              3193.7983              3228.1276
 Red. masses --     1.0669                 1.0657                 1.0875
 Frc consts  --     6.3994                 6.4047                 6.6773
 IR Inten    --    33.0939                16.6200                17.5362
 Raman Activ --   257.1703                 6.6334               129.8054

                   127                    128                    129
                     A                      A                      A
 Frequencies --  3242.9267              3250.2139              3258.5016
 Red. masses --     1.1040                 1.0988                 1.0994
 Frc consts  --     6.8404                 6.8389                 6.8779
 IR Inten    --     9.9802                17.1121                18.8495
 Raman Activ --    62.8424                76.6348                78.2629

                   130                    131                    132
                     A                      A                      A
 Frequencies --  3265.9737              3302.7317              3315.7226
 Red. masses --     1.0992                 1.0948                 1.0894
 Frc consts  --     6.9078                 7.0363                 7.0565
 IR Inten    --     9.5705                 1.5491                10.6677
 Raman Activ --   100.9117                74.9946                36.8596

                   133                    134                    135
                     A                      A                      A
 Frequencies --  3320.3178              3334.6080              3344.9510
 Red. masses --     1.0889                 1.0918                 1.0960
 Frc consts  --     7.0731                 7.1532                 7.2249
 IR Inten    --     5.5841                 4.7187                24.4018
 Raman Activ --    56.8426               102.3708                43.8154

                   136                    137                    138
                     A                      A                      A
 Frequencies --  3357.3206              3374.9595              3397.6507
 Red. masses --     1.0997                 1.0907                 1.0965
 Frc consts  --     7.3032                 7.3199                 7.4580
 IR Inten    --    12.0281                 5.9523                 9.3072
 Raman Activ --   271.7855                61.7056                65.8732

                   139                    140                    141
                     A                      A                      A
 Frequencies --  3414.2010              3728.0385              3766.9317
 Red. masses --     1.0942                 1.0794                 1.0789
 Frc consts  --     7.5150                 8.8390                 9.0199
 IR Inten    --    39.6965               100.8637               238.2092
 Raman Activ --    36.2914                68.2422               111.3317

 - Thermochemistry -
 -------------------
 Temperature   298.150 Kelvin.  Pressure   1.00000 Atm.
 Atom  1 has atomic number  6 and mass  12.00000

 Molecular mass:   385.15120 amu.
 Principal axes and moments of inertia in atomic units:
                           1         2         3
     EIGENVALUES --  4087.16974********************
           X            1.00000   0.00258  -0.00118
           Y           -0.00258   0.99999   0.00305
           Z            0.00119  -0.00304   0.99999
 This molecule is an asymmetric top.
 Rotational symmetry number  1.
 Warning -- assumption of classical behavior for rotation
           may cause significant error
 Rotational temperatures (Kelvin)      0.02119     0.00260     0.00243
 Rotational constants (GHZ):           0.44156     0.05420     0.05063
 Zero-point vibrational energy    1107230.5 (Joules/Mol)
                                  264.63443 (Kcal/Mol)
 Warning -- explicit consideration of  35 degrees of freedom as
           vibrations may cause significant error
 Vibrational temperatures:     15.17    17.80    33.53    40.86    53.73
          (Kelvin)             67.08    78.18    86.06    95.69   131.22
                              196.44   218.60   248.76   263.46   292.44
                              315.02   359.54   430.37   434.98   505.81
                              514.84   537.08   569.08   582.21   600.67
                              618.98   650.52   653.50   677.82   685.32
                              756.05   775.58   813.40   828.41   871.87
                              926.49   959.76   973.90   989.73  1018.51
                             1079.47  1093.75  1116.28  1139.32  1163.71
                             1184.38  1190.92  1194.82  1202.91  1227.04
                             1254.04  1273.69  1306.20  1339.37  1349.95
                             1372.30  1384.47  1399.15  1431.03  1478.20
                             1486.85  1495.93  1536.14  1555.39  1558.87
                             1569.92  1588.05  1598.67  1609.16  1613.02
                             1620.81  1658.72  1679.86  1692.70  1717.62
                             1752.55  1765.58  1777.03  1789.52  1803.35
                             1823.00  1840.99  1852.89  1893.57  1896.44
                             1910.69  1924.24  1948.74  2004.25  2018.35
                             2037.68  2042.59  2079.98  2102.47  2115.95
                             2145.97  2159.50  2170.01  2199.01  2226.56
                             2229.64  2266.73  2272.48  2290.48  2308.18
                             2313.24  2332.32  2336.22  2346.83  2372.43
                             2378.37  2388.87  2417.20  2542.13  2547.16
                             2573.59  2582.21  2629.24  2688.35  2701.60
                             4580.05  4582.19  4586.09  4590.73  4595.16
                             4644.55  4665.84  4676.33  4688.25  4699.00
                             4751.89  4770.58  4777.19  4797.75  4812.63
                             4830.43  4855.81  4888.46  4912.27  5363.81
                             5419.77

 Zero-point correction=                           0.421722 (Hartree/Particle)
 Thermal correction to Energy=                    0.444627
 Thermal correction to Enthalpy=                  0.445571
 Thermal correction to Gibbs Free Energy=         0.363049
 Sum of electronic and zero-point Energies=          -1323.226879
 Sum of electronic and thermal Energies=             -1323.203974
 Sum of electronic and thermal Enthalpies=           -1323.203030
 Sum of electronic and thermal Free Energies=        -1323.285552

                     E (Thermal)             CV                S
                      KCal/Mol        Cal/Mol-Kelvin    Cal/Mol-Kelvin
 Total                  279.007             86.629            173.681
 Electronic               0.000              0.000              0.000
 Translational            0.889              2.981             43.738
 Rotational               0.889              2.981             36.826
 Vibrational            277.230             80.667             93.117
 Vibration  1             0.593              1.987              7.906
 Vibration  2             0.593              1.987              7.588
 Vibration  3             0.593              1.985              6.331
 Vibration  4             0.593              1.984              5.938
 Vibration  5             0.594              1.982              5.395
 Vibration  6             0.595              1.979              4.956
 Vibration  7             0.596              1.976              4.653
 Vibration  8             0.597              1.973              4.463
 Vibration  9             0.598              1.970              4.254
 Vibration 10             0.602              1.955              3.634
 Vibration 11             0.614              1.917              2.852
 Vibration 12             0.619              1.901              2.648
 Vibration 13             0.626              1.876              2.404
 Vibration 14             0.631              1.863              2.296
 Vibration 15             0.639              1.835              2.103
 Vibration 16             0.647              1.812              1.968
 Vibration 17             0.663              1.763              1.731
 Vibration 18             0.692              1.675              1.422
 Vibration 19             0.694              1.669              1.404
 Vibration 20             0.728              1.572              1.159
 Vibration 21             0.733              1.559              1.131
 Vibration 22             0.745              1.527              1.066
 Vibration 23             0.762              1.480              0.979
 Vibration 24             0.770              1.460              0.946
 Vibration 25             0.781              1.432              0.901
 Vibration 26             0.791              1.404              0.858
 Vibration 27             0.811              1.356              0.789
 Vibration 28             0.813              1.352              0.783
 Vibration 29             0.828              1.314              0.734
 Vibration 30             0.833              1.303              0.720
 Vibration 31             0.880              1.194              0.597
 Vibration 32             0.894              1.164              0.567
 Vibration 33             0.921              1.106              0.513
 Vibration 34             0.932              1.084              0.493
 Vibration 35             0.965              1.019              0.439

 Normal termination of Gaussian 03 at Thu May 13 10:48:57 2010.
